# LAMMPS data file written by OVITO Basic 3.2.1
284 atoms
1 atom types
-24.0 24.0 xlo xhi
-24.0 24.0 ylo yhi
-24.0 24.0 zlo zhi

Atoms  # full

171 1 1 0.0 -1.318416 -1.353792 -3.092976
39 1 1 0.0 -0.540816 -1.795248 -3.220416
83 1 1 0.0 0.215664 -1.319712 -3.422592
60 1 1 0.0 0.968736 -1.717296 -3.260688
58 1 1 0.0 -0.547248 -0.89664 -3.400656
1 1 1 0.0 1.046064 -0.856896 -3.401472
163 1 1 0.0 -1.280736 -0.466752 -3.191136
105 1 1 0.0 -0.43104 9.6e-04 -3.394896
213 1 1 0.0 0.302016 -0.424608 -3.4896
109 1 1 0.0 1.082736 0.037728 -3.354096
122 1 1 0.0 -1.11936 0.404016 -3.128784
180 1 1 0.0 -0.408672 0.940896 -3.137376
146 1 1 0.0 0.32688 0.504768 -3.342384
242 1 1 0.0 0.40032 -2.97792 -2.687856
157 1 1 0.0 -1.242672 -2.211696 -2.8284
129 1 1 0.0 -0.43992 -2.64504 -2.848272
201 1 1 0.0 0.25392 -2.20392 -3.146928
241 1 1 0.0 1.094208 -2.477808 -2.908608
127 1 1 0.0 1.863504 -2.592 -2.548032
71 1 1 0.0 -2.00592 -1.737984 -2.5944
162 1 1 0.0 1.725456 -1.36488 -3.12456
69 1 1 0.0 2.264976 -1.86936 -2.695776
272 1 1 0.0 -2.035632 -0.896496 -2.769408
179 1 1 0.0 2.462352 -1.026432 -2.791056
118 1 1 0.0 -2.61936 -0.312336 -2.28168
232 1 1 0.0 -1.950384 -0.05184 -2.80368
155 1 1 0.0 1.821072 -0.478656 -3.165888
182 1 1 0.0 2.538048 -0.157968 -2.742336
40 1 1 0.0 -2.424192 0.550512 -2.26392
34 1 1 0.0 -1.747968 0.755424 -2.713536
151 1 1 0.0 1.08408 0.928368 -3.101472
280 1 1 0.0 1.828368 0.40032 -3.032496
72 1 1 0.0 2.508144 0.678576 -2.545728
113 1 1 0.0 -1.113312 1.305456 -2.757984
117 1 1 0.0 0.332304 1.402128 -2.968464
200 1 1 0.0 1.815456 1.236816 -2.693808
181 1 1 0.0 -0.415296 1.792224 -2.65224
217 1 1 0.0 0.322272 2.17776 -2.39616
257 1 1 0.0 1.082448 1.751904 -2.636208
176 1 1 0.0 -0.925056 -3.66552 -1.756992
234 1 1 0.0 0.561504 -3.62424 -2.065824
191 1 1 0.0 -1.683648 -3.239088 -1.786848
259 1 1 0.0 -1.094016 -2.998752 -2.38512
45 1 1 0.0 -0.282048 -3.380592 -2.298384
265 1 1 0.0 1.244208 -3.17184 -2.368848
208 1 1 0.0 2.107824 -3.147648 -1.92528
224 1 1 0.0 -2.576832 -2.02224 -1.94184
38 1 1 0.0 -1.870752 -2.53272 -2.27496
166 1 1 0.0 2.632512 -2.434416 -2.108064
44 1 1 0.0 2.961312 -1.598496 -2.243088
55 1 1 0.0 -3.149376 -0.594144 -1.623264
9 1 1 0.0 -2.665008 -1.183488 -2.177904
81 1 1 0.0 3.098688 -0.707136 -2.290992
75 1 1 0.0 -2.99712 0.305856 -1.680096
4 1 1 0.0 3.126624 0.223824 -2.146224
47 1 1 0.0 -2.593248 1.195968 -1.699632
283 1 1 0.0 -1.913088 1.406928 -2.227968
13 1 1 0.0 2.503152 1.410576 -2.134848
5 1 1 0.0 -1.997952 1.979952 -1.616112
90 1 1 0.0 -1.231728 1.97952 -2.200176
139 1 1 0.0 -0.491136 2.44248 -2.018208
222 1 1 0.0 1.819296 1.96008 -2.15784
92 1 1 0.0 -1.276416 2.530464 -1.514496
101 1 1 0.0 0.275712 2.767776 -1.694976
193 1 1 0.0 1.072368 2.430768 -2.001552
19 1 1 0.0 -1.569648 -3.756192 -1.124448
80 1 1 0.0 -0.797568 -4.141008 -0.993552
7 1 1 0.0 -0.11616 -3.962832 -1.596864
189 1 1 0.0 0.735504 -4.096176 -1.334448
258 1 1 0.0 1.444896 -3.692976 -1.695984
12 1 1 0.0 -2.367504 -2.789472 -1.580112
236 1 1 0.0 2.845392 -2.937936 -1.404288
33 1 1 0.0 2.260272 -3.58992 -1.18512
230 1 1 0.0 -2.964384 -2.31456 -1.152048
65 1 1 0.0 3.279744 -2.146128 -1.569648
103 1 1 0.0 -3.133008 -1.483152 -1.449024
215 1 1 0.0 -3.509376 -0.903312 -0.862368
96 1 1 0.0 3.529248 -1.275072 -1.664352
104 1 1 0.0 -3.4284 0.020688 -0.987648
48 1 1 0.0 3.59232 -0.376416 -1.674816
244 1 1 0.0 -3.131904 0.929184 -1.044096
22 1 1 0.0 3.539664 0.56472 -1.454928
177 1 1 0.0 3.121296 1.305408 -1.540128
14 1 1 0.0 -2.642112 1.746912 -1.024224
233 1 1 0.0 -1.983696 2.445264 -0.902304
194 1 1 0.0 2.530608 2.011104 -1.518336
190 1 1 0.0 -0.501312 2.942352 -1.25664
218 1 1 0.0 1.030512 2.934576 -1.25304
26 1 1 0.0 1.808112 2.525136 -1.485024
202 1 1 0.0 0.274656 3.187728 -0.866016
41 1 1 0.0 0.024528 -4.353552 -0.807552
116 1 1 0.0 0.847728 -4.402176 -0.522
247 1 1 0.0 -2.111424 -3.67128 -0.480288
229 1 1 0.0 -1.407072 -4.13664 -0.308976
248 1 1 0.0 1.569072 -4.074288 -0.919584
77 1 1 0.0 2.279184 -3.9144 -0.354672
94 1 1 0.0 -2.607168 -3.06888 -0.810432
255 1 1 0.0 2.919648 -3.337728 -0.600432
85 1 1 0.0 -3.12312 -2.606592 -0.27912
46 1 1 0.0 3.433104 -2.608752 -0.796944
133 1 1 0.0 -3.407664 -1.794528 -0.615024
107 1 1 0.0 3.780192 -1.775184 -0.928416
30 1 1 0.0 -3.680784 -1.210704 -0.034656
18 1 1 0.0 3.94296 -0.898368 -0.985296
120 1 1 0.0 -3.6912 -0.292128 -0.220752
35 1 1 0.0 3.924096 -0.026208 -0.979296
136 1 1 0.0 -3.500064 0.615888 -0.297888
78 1 1 0.0 4.012368 0.495072 -0.32832
93 1 1 0.0 -3.119568 1.450944 -0.305424
205 1 1 0.0 3.626928 1.148064 -0.7536
264 1 1 0.0 -2.568 2.17752 -0.269232
210 1 1 0.0 3.115728 1.863216 -0.84504
130 1 1 0.0 -1.871376 2.777616 -0.11136
178 1 1 0.0 -1.23288 2.938272 -0.733728
97 1 1 0.0 1.730544 2.93832 -0.72312
260 1 1 0.0 2.451072 2.5008 -0.798576
165 1 1 0.0 -0.45432 3.268368 -0.388464
261 1 1 0.0 1.00752 3.259824 -0.368832
21 1 1 0.0 -0.613296 -4.435728 -0.147024
144 1 1 0.0 0.22896 -4.557456 0.042384
79 1 1 0.0 -2.003808 -3.893904 0.363792
36 1 1 0.0 -1.23648 -4.301472 0.554304
56 1 1 0.0 1.556208 -4.319088 -0.071184
3 1 1 0.0 -2.656896 -3.313296 0.079296
2 1 1 0.0 2.831664 -3.622512 0.273648
138 1 1 0.0 3.420432 -2.966448 0.042576
220 1 1 0.0 -3.081312 -2.818176 0.634128
59 1 1 0.0 -3.48072 -2.04936 0.285168
53 1 1 0.0 3.85896 -2.17176 -0.125616
16 1 1 0.0 -3.77256 -0.612096 0.584112
240 1 1 0.0 4.11288 -1.302528 -0.215328
20 1 1 0.0 4.17264 -0.4068 -0.245664
24 1 1 0.0 -3.680256 0.269568 0.495984
114 1 1 0.0 4.182912 0.14544 0.469152
87 1 1 0.0 -3.40032 1.104672 0.485712
161 1 1 0.0 3.922752 1.004064 0.341616
199 1 1 0.0 -2.94888 1.855728 0.4956
131 1 1 0.0 2.937744 2.325024 -0.124272
237 1 1 0.0 3.510144 1.682112 -4.8e-04
153 1 1 0.0 -2.352528 2.489232 0.516528
158 1 1 0.0 2.457168 2.764848 0.429264
282 1 1 0.0 -1.154064 3.166368 0.119664
50 1 1 0.0 -0.42336 3.37968 0.567312
57 1 1 0.0 0.292512 3.411024 0.0876
239 1 1 0.0 1.045248 3.351312 0.576768
43 1 1 0.0 1.7496 3.118752 0.108624
279 1 1 0.0 -0.400656 -4.527264 0.720096
216 1 1 0.0 0.468 -4.567056 0.8508
102 1 1 0.0 1.304592 -4.434672 0.734256
63 1 1 0.0 -1.77216 -3.96792 1.22544
245 1 1 0.0 2.13096 -4.109856 0.545808
108 1 1 0.0 2.587536 -3.752832 1.192176
284 1 1 0.0 -2.501616 -3.463392 0.96936
203 1 1 0.0 3.242352 -3.199344 0.92088
277 1 1 0.0 -3.355392 -2.22192 1.18248
64 1 1 0.0 3.761712 -2.47992 0.70464
275 1 1 0.0 -3.667344 -1.412544 0.857232
70 1 1 0.0 4.10232 -1.643664 0.591504
243 1 1 0.0 4.2444 -0.75576 0.543024
66 1 1 0.0 -3.67752 -0.14856 1.277232
209 1 1 0.0 -3.482736 0.699648 1.287984
266 1 1 0.0 3.985536 0.696048 1.165728
267 1 1 0.0 -3.10584 1.491264 1.29792
143 1 1 0.0 3.622416 1.529136 0.962112
54 1 1 0.0 -2.56344 2.185056 1.29624
148 1 1 0.0 3.118464 2.207664 0.71736
231 1 1 0.0 -1.885152 2.763216 1.172448
52 1 1 0.0 1.813872 3.080928 0.992544
252 1 1 0.0 2.53656 2.616144 1.296192
86 1 1 0.0 -1.164096 3.156624 0.969984
119 1 1 0.0 0.310176 3.396048 1.060512
61 1 1 0.0 -0.037152 -4.4388 1.548
197 1 1 0.0 -1.424544 -3.882192 2.051136
187 1 1 0.0 -0.939216 -4.299792 1.410048
95 1 1 0.0 0.933984 -4.385088 1.554576
10 1 1 0.0 1.80456 -4.155264 1.409376
49 1 1 0.0 -2.863344 -2.892576 1.547616
228 1 1 0.0 -2.209152 -3.45744 1.840704
147 1 1 0.0 2.927568 -3.250176 1.81752
159 1 1 0.0 -3.076944 -2.201712 2.074176
89 1 1 0.0 3.51216 -2.65416 1.545552
68 1 1 0.0 -3.481056 -1.535904 1.676592
250 1 1 0.0 3.912864 -1.925616 1.3956
137 1 1 0.0 -3.526224 -0.721152 1.888704
135 1 1 0.0 4.131696 -1.072656 1.3416
140 1 1 0.0 4.154496 -0.185616 1.284768
270 1 1 0.0 -3.397872 0.1584 2.037264
125 1 1 0.0 3.861888 0.332832 1.972944
134 1 1 0.0 -3.110496 1.00008 2.055072
25 1 1 0.0 3.600528 1.195104 1.795872
269 1 1 0.0 -2.62968 1.765488 2.054064
251 1 1 0.0 3.1428 1.978896 1.573968
183 1 1 0.0 -1.991952 2.421168 1.9716
192 1 1 0.0 -1.249632 2.91648 1.808352
126 1 1 0.0 1.82976 2.854848 1.84848
256 1 1 0.0 -0.460992 3.250512 1.489824
128 1 1 0.0 0.290352 3.165504 1.955904
254 1 1 0.0 1.076592 3.220896 1.49352
221 1 1 0.0 -0.53712 -4.129296 2.198784
238 1 1 0.0 0.44184 -4.18296 2.251344
253 1 1 0.0 1.37712 -4.02288 2.215152
214 1 1 0.0 2.209152 -3.707568 2.057136
172 1 1 0.0 -1.802352 -3.290592 2.642064
76 1 1 0.0 -0.983328 -3.642048 2.789568
274 1 1 0.0 2.536032 -3.088176 2.632272
184 1 1 0.0 -2.509824 -2.799408 2.402064
31 1 1 0.0 3.196464 -2.58312 2.33568
168 1 1 0.0 -3.175824 -1.36464 2.463456
29 1 1 0.0 -2.685072 -2.001456 2.85696
212 1 1 0.0 3.377088 -1.829232 2.679648
262 1 1 0.0 3.830112 -1.431456 2.085984
91 1 1 0.0 -3.156528 -0.485568 2.645616
51 1 1 0.0 3.54984 -0.088512 2.724624
226 1 1 0.0 3.93504 -0.55536 2.069952
219 1 1 0.0 -2.951616 0.397248 2.740896
15 1 1 0.0 -2.578704 1.217088 2.735808
32 1 1 0.0 3.394992 0.783552 2.581872
88 1 1 0.0 -2.002656 1.935936 2.69424
154 1 1 0.0 3.0564 1.598832 2.36448
249 1 1 0.0 -1.297104 2.500848 2.577792
263 1 1 0.0 -0.516096 2.919072 2.329392
196 1 1 0.0 0.2484 2.742816 2.76528
27 1 1 0.0 1.048752 2.899344 2.343936
8 1 1 0.0 1.765344 2.463696 2.640864
99 1 1 0.0 2.50872 2.314608 2.120544
74 1 1 0.0 -0.048432 -3.809472 2.86752
268 1 1 0.0 0.880416 -3.735936 2.896128
198 1 1 0.0 -1.303536 -2.978112 3.329808
235 1 1 0.0 -0.476256 -3.270624 3.400512
124 1 1 0.0 0.375216 -3.285696 3.46824
170 1 1 0.0 1.261872 -3.117744 3.442752
149 1 1 0.0 1.762128 -3.484032 2.81568
164 1 1 0.0 -2.049696 -2.547984 3.149136
271 1 1 0.0 2.062944 -2.768448 3.332736
246 1 1 0.0 2.774496 -2.322864 3.084048
28 1 1 0.0 -2.145216 -1.718832 3.528384
62 1 1 0.0 -2.718 -1.130688 3.165456
169 1 1 0.0 2.95032 -1.449264 3.337584
84 1 1 0.0 3.52368 -0.966624 2.782512
110 1 1 0.0 -2.631552 -0.251424 3.297168
115 1 1 0.0 3.03288 -0.562992 3.391488
145 1 1 0.0 -2.352384 0.603024 3.342528
276 1 1 0.0 3.0048 0.311136 3.280992
150 1 1 0.0 -1.918272 1.33008 3.311616
167 1 1 0.0 2.778864 1.154064 3.094656
142 1 1 0.0 -1.270752 1.936656 3.252768
273 1 1 0.0 0.220944 2.136 3.46944
23 1 1 0.0 1.683072 1.891056 3.331392
106 1 1 0.0 2.386464 1.871808 2.861856
227 1 1 0.0 -0.535632 2.409696 3.077184
223 1 1 0.0 0.992592 2.3916 3.105264
11 1 1 0.0 -1.447152 -2.1996 3.769632
17 1 1 0.0 -0.66504 -2.587728 3.865104
111 1 1 0.0 0.709248 -2.642928 3.922032
100 1 1 0.0 1.521408 -2.3232 3.888384
173 1 1 0.0 -0.722592 -1.774272 4.219296
73 1 1 0.0 0.03672 -2.202192 4.1772
186 1 1 0.0 0.855984 -1.835472 4.271904
204 1 1 0.0 2.276544 -1.916064 3.697536
123 1 1 0.0 -2.112048 -0.84984 3.752304
141 1 1 0.0 -1.463616 -1.350096 4.061808
195 1 1 0.0 1.650096 -1.453872 4.163712
132 1 1 0.0 2.383344 -1.026192 3.873168
6 1 1 0.0 -1.976112 0.009696 3.811008
112 1 1 0.0 -1.364976 -0.475152 4.189536
185 1 1 0.0 -0.593808 -0.015456 4.397424
206 1 1 0.0 1.70088 -0.553872 4.24848
156 1 1 0.0 2.40768 -0.138432 3.85992
281 1 1 0.0 -1.290768 0.424752 4.086384
225 1 1 0.0 1.684848 0.338832 4.142448
37 1 1 0.0 2.340048 0.716352 3.681072
152 1 1 0.0 -1.229184 1.223856 3.788016
174 1 1 0.0 -0.528912 0.87672 4.17432
42 1 1 0.0 0.204144 1.33056 4.043328
121 1 1 0.0 0.939072 0.84888 4.197744
98 1 1 0.0 1.654992 1.191744 3.827424
188 1 1 0.0 -0.518448 1.726608 3.710016
82 1 1 0.0 0.93432 1.69776 3.745632
175 1 1 0.0 -0.648912 -0.915408 4.410912
211 1 1 0.0 0.108288 -1.366512 4.444176
278 1 1 0.0 0.92424 -0.959904 4.446816
67 1 1 0.0 0.15768 -0.477648 4.522752
207 1 1 0.0 0.947472 -0.05616 4.427472
160 1 1 0.0 0.19224 0.427008 4.397616
