ITEM: TIMESTEP
0
ITEM: NUMBER OF ATOMS
284
ITEM: BOX BOUNDS pp pp ff
-2.4000000000000000e+01 2.4000000000000000e+01
-2.4000000000000000e+01 2.4000000000000000e+01
-2.4000000000000000e+01 2.4000000000000000e+01
ITEM: ATOMS id type x y z vx vy vz fx fy fz
213 1 0.302016 -0.424608 -3.4896 0 0 0 0.20764 -0.120269 -0.175875
176 1 -0.925056 -3.66552 -1.75699 0 0 0 -0.103345 -0.207417 0.0862639
234 1 0.561504 -3.62424 -2.06582 0 0 0 -0.328997 -0.0769507 -0.113258
7 1 -0.11616 -3.96283 -1.59686 0 0 0 0.269498 -0.156759 0.0373666
189 1 0.735504 -4.09618 -1.33445 0 0 0 -0.134254 -0.0272922 -0.192295
258 1 1.4449 -3.69298 -1.69598 0 0 0 -0.00889493 -0.149927 -0.0725238
33 1 2.26027 -3.58992 -1.18512 0 0 0 0.318879 -0.0203393 0.168335
171 1 -1.31842 -1.35379 -3.09298 0 0 0 -0.00569492 -0.134066 0.0148358
157 1 -1.24267 -2.2117 -2.8284 0 0 0 0.0480649 0.0245669 -0.042353
71 1 -2.00592 -1.73798 -2.5944 0 0 0 -0.0748357 -0.180148 -0.0793973
191 1 -1.68365 -3.23909 -1.78685 0 0 0 -0.00866443 -0.161096 -0.509386
224 1 -2.57683 -2.02224 -1.94184 0 0 0 -0.0773878 -0.00141421 -0.0874563
38 1 -1.87075 -2.53272 -2.27496 0 0 0 0.0541016 -0.238968 -0.0775547
9 1 -2.66501 -1.18349 -2.1779 0 0 0 -0.0710977 0.0373042 -0.0797197
12 1 -2.3675 -2.78947 -1.58011 0 0 0 -0.260507 0.11785 -0.474963
230 1 -2.96438 -2.31456 -1.15205 0 0 0 -0.0260073 -0.116704 -0.126166
103 1 -3.13301 -1.48315 -1.44902 0 0 0 -0.00440019 0.021854 -0.00790492
39 1 -0.540816 -1.79525 -3.22042 0 0 0 -0.0590139 0.0303463 -0.00545692
83 1 0.215664 -1.31971 -3.42259 0 0 0 -0.0979047 0.0389652 -0.137641
60 1 0.968736 -1.7173 -3.26069 0 0 0 -0.137416 0.0122385 -0.480727
242 1 0.40032 -2.97792 -2.68786 0 0 0 0.00337059 -0.0321608 -0.0679671
129 1 -0.43992 -2.64504 -2.84827 0 0 0 -0.0428363 -0.0612104 -0.0808575
201 1 0.25392 -2.20392 -3.14693 0 0 0 0.00356122 -0.0861191 -0.0943652
241 1 1.09421 -2.47781 -2.90861 0 0 0 -0.377323 -0.516118 -0.103514
259 1 -1.09402 -2.99875 -2.38512 0 0 0 -0.00270149 -0.0487252 -0.106903
45 1 -0.282048 -3.38059 -2.29838 0 0 0 -0.0844312 -0.076336 -0.000724989
127 1 1.8635 -2.592 -2.54803 0 0 0 0.488792 -0.322674 -0.000588999
162 1 1.72546 -1.36488 -3.12456 0 0 0 0.099898 0.575843 -0.408558
69 1 2.26498 -1.86936 -2.69578 0 0 0 0.556805 -0.159935 -0.0356949
265 1 1.24421 -3.17184 -2.36885 0 0 0 -0.142143 0.0161903 -0.345541
208 1 2.10782 -3.14765 -1.92528 0 0 0 0.257297 -0.000475634 -0.036846
166 1 2.63251 -2.43442 -2.10806 0 0 0 -0.14034 -0.0370572 -0.185956
44 1 2.96131 -1.5985 -2.24309 0 0 0 0.0692546 -0.036521 -0.0846894
236 1 2.84539 -2.93794 -1.40429 0 0 0 0.0422751 -0.0999922 0.13976
65 1 3.27974 -2.14613 -1.56965 0 0 0 0.0797707 0.0156422 0.0361404
96 1 3.52925 -1.27507 -1.66435 -0.0005 0 0 0 0.0278604 0
163 1 -1.28074 -0.466752 -3.19114 0 0 0 -0.109986 -0.07502 -0.110411
272 1 -2.03563 -0.896496 -2.76941 0 0 0 -0.128694 -0.218695 -0.122138
118 1 -2.61936 -0.312336 -2.28168 0 0 0 -0.123878 0.114853 -0.0446137
232 1 -1.95038 -0.05184 -2.80368 0 0 0 -0.353626 0.0702076 -0.126541
40 1 -2.42419 0.550512 -2.26392 0 0 0 -0.220785 -0.131253 -0.292676
34 1 -1.74797 0.755424 -2.71354 0 0 0 -0.33386 0.214361 -0.616655
55 1 -3.14938 -0.594144 -1.62326 0 0 0 -0.0811686 -0.0346025 0.0780444
75 1 -2.99712 0.305856 -1.6801 0 0 0 -0.262682 -0.0284448 0.0579716
58 1 -0.547248 -0.89664 -3.40066 0 0 0 -0.0698538 0.0258543 -0.10293
1 1 1.04606 -0.856896 -3.40147 0 0 0 0.422114 0.105404 -0.0909997
105 1 -0.43104 0.00096 -3.3949 0 0 0 0.158606 -0.096942 -0.269709
109 1 1.08274 0.037728 -3.3541 0 0 0 0.0176589 -0.139908 -0.0767853
122 1 -1.11936 0.404016 -3.12878 0 0 0 -0.0328272 0.113885 -0.293055
180 1 -0.408672 0.940896 -3.13738 0 0 0 -0.0507791 0.0316289 -0.125037
146 1 0.32688 0.504768 -3.34238 0 0 0 0.151092 -0.0847371 -0.0932317
151 1 1.08408 0.928368 -3.10147 0 0 0 -0.100782 -0.068863 -0.0745761
179 1 2.46235 -1.02643 -2.79106 0 0 0 0.0363725 -0.0135727 -0.261718
155 1 1.82107 -0.478656 -3.16589 0 0 0 -0.00389457 -0.0677045 -0.0807908
182 1 2.53805 -0.157968 -2.74234 0 0 0 0.197437 -0.191316 -0.0809677
280 1 1.82837 0.40032 -3.0325 0 0 0 -0.109382 0.184409 -0.0978729
72 1 2.50814 0.678576 -2.54573 0 0 0 -0.224759 0.207557 -0.520626
81 1 3.09869 -0.707136 -2.29099 0 0 0 -0.0690859 -0.119976 -0.289019
4 1 3.12662 0.223824 -2.14622 0 0 0 0.191753 -0.483208 -0.146549
48 1 3.59232 -0.376416 -1.67482 -0.0005 0 0 0 -0.182527 0
22 1 3.53966 0.56472 -1.45493 -0.0005 0 0 0 0.107192 0
47 1 -2.59325 1.19597 -1.69963 0 0 0 -0.146504 0.0456228 -0.078056
283 1 -1.91309 1.40693 -2.22797 0 0 0 -0.108935 0.272468 -0.16861
5 1 -1.99795 1.97995 -1.61611 0 0 0 -0.131678 0.259117 0.0332721
90 1 -1.23173 1.97952 -2.20018 0 0 0 -0.010428 0.0612817 -0.110144
92 1 -1.27642 2.53046 -1.5145 0 0 0 -0.0373902 0.0739221 -0.0199612
113 1 -1.11331 1.30546 -2.75798 0 0 0 -0.085301 0.199207 -0.205348
117 1 0.332304 1.40213 -2.96846 0 0 0 0.0218395 0.0663126 -0.0142311
181 1 -0.415296 1.79222 -2.65224 0 0 0 0.1961 0.223266 -0.0672364
217 1 0.322272 2.17776 -2.39616 0 0 0 0.232784 0.170364 0.0338509
257 1 1.08245 1.7519 -2.63621 0 0 0 0.0996264 0.0896278 0.0633875
139 1 -0.491136 2.44248 -2.01821 0 0 0 0.0189545 0.0342469 -0.0149403
101 1 0.275712 2.76778 -1.69498 0 0 0 -0.0508941 0.0114065 -0.0480799
193 1 1.07237 2.43077 -2.00155 0 0 0 0.205772 0.124366 0.150023
190 1 -0.501312 2.94235 -1.25664 0 0 0 0.0122502 6.83202e-05 -0.00875624
218 1 1.03051 2.93458 -1.25304 0 0 0 0.0484199 -0.0453569 -0.291896
200 1 1.81546 1.23682 -2.69381 0 0 0 0.162774 0.0271185 0.0672404
13 1 2.50315 1.41058 -2.13485 0 0 0 -0.194591 0.31963 -0.445284
222 1 1.8193 1.96008 -2.15784 0 0 0 -0.287224 -0.0290819 -0.349991
177 1 3.1213 1.30541 -1.54013 0 0 0 0.0720416 0.584272 0.266333
194 1 2.53061 2.0111 -1.51834 0 0 0 0.278277 0.106504 0.122398
26 1 1.80811 2.52514 -1.48502 0 0 0 -0.158757 0.137922 -0.186083
19 1 -1.56965 -3.75619 -1.12445 0 0 0 0.345696 -0.49994 -0.0933636
247 1 -2.11142 -3.67128 -0.480288 0 0 0 -0.241079 -0.459773 0.162137
229 1 -1.40707 -4.13664 -0.308976 0 0 0 -0.0564479 -0.147311 -0.0741646
79 1 -2.00381 -3.8939 0.363792 0 0 0 -0.0926425 -0.0538394 0.180646
36 1 -1.23648 -4.30147 0.554304 0 0 0 -0.151252 -0.0189784 0.0665334
284 1 -2.50162 -3.46339 0.96936 0 0 0 0.0232317 -0.0815011 -0.061163
80 1 -0.797568 -4.14101 -0.993552 0 0 0 -0.0954617 -0.0918947 -0.0491604
41 1 0.024528 -4.35355 -0.807552 0 0 0 0.0807784 -0.180215 0.0516081
116 1 0.847728 -4.40218 -0.522 0 0 0 0.117132 -0.236958 -0.482486
21 1 -0.613296 -4.43573 -0.147024 0 0 0 0.113446 -0.168525 -0.0342442
144 1 0.22896 -4.55746 0.042384 0 0 0 -0.468512 -0.252255 -0.285597
279 1 -0.400656 -4.52726 0.720096 0 0 0 -0.0458796 -0.0811024 0.0565593
216 1 0.468 -4.56706 0.8508 0 0 0 -0.201587 -0.412135 0.207143
248 1 1.56907 -4.07429 -0.919584 0 0 0 0.0611688 -0.201209 0.110356
77 1 2.27918 -3.9144 -0.354672 0 0 0 0.177327 0.024413 -0.180306
56 1 1.55621 -4.31909 -0.071184 0 0 0 0.408919 -0.227033 -0.274721
2 1 2.83166 -3.62251 0.273648 0 0 0 0.00874585 -0.0995478 -0.189398
102 1 1.30459 -4.43467 0.734256 0 0 0 0.430056 -0.0842101 0.567066
245 1 2.13096 -4.10986 0.545808 0 0 0 0.0133483 -0.156534 -0.00550817
30 1 -3.68078 -1.2107 -0.034656 0.0005 0 0 0 -0.0369062 0
59 1 -3.48072 -2.04936 0.285168 0 0 0 -0.14543 0.0381549 0.0782989
275 1 -3.66734 -1.41254 0.857232 0.0005 0 0 0 -0.402139 0
94 1 -2.60717 -3.06888 -0.810432 0 0 0 -0.563153 0.159685 0.104674
85 1 -3.12312 -2.60659 -0.27912 0 0 0 -0.0715074 -0.0995618 -0.0618166
133 1 -3.40766 -1.79453 -0.615024 0 0 0 -0.109552 -0.0698827 -0.0551948
3 1 -2.6569 -3.3133 0.079296 0 0 0 -0.0793598 -0.169407 -0.0407287
220 1 -3.08131 -2.81818 0.634128 0 0 0 -0.146733 -0.118675 -0.0073961
255 1 2.91965 -3.33773 -0.600432 0 0 0 0.00531942 0.01262 -0.0841727
138 1 3.42043 -2.96645 0.042576 0 0 0 -0.0300153 -0.0764851 -0.0905316
203 1 3.24235 -3.19934 0.92088 0 0 0 0.0654897 -0.106531 -0.045669
46 1 3.4331 -2.60875 -0.796944 0 0 0 -9.72137e-05 -0.000151447 -7.97703e-05
107 1 3.78019 -1.77518 -0.928416 -0.0005 0 0 0 -0.0655291 0
53 1 3.85896 -2.17176 -0.125616 -0.0005 0 0 0 0.0528665 0
240 1 4.11288 -1.30253 -0.215328 -0.0005 0 0 0 0.0239137 0
64 1 3.76171 -2.47992 0.70464 -0.0005 0 0 0 0.0554556 0
70 1 4.10232 -1.64366 0.591504 -0.0005 0 0 0 -0.0114812 0
215 1 -3.50938 -0.903312 -0.862368 0.0005 0 0 0 -0.018522 0
120 1 -3.6912 -0.292128 -0.220752 0.0005 0 0 0 -0.00258836 0
136 1 -3.50006 0.615888 -0.297888 0.0005 0 0 0 0.0432281 0
16 1 -3.77256 -0.612096 0.584112 0.0005 0 0 0 0.295698 0
24 1 -3.68026 0.269568 0.495984 0.0005 0 0 0 -0.17128 0
104 1 -3.4284 0.020688 -0.987648 0 0 0 -0.169614 -0.0127253 0.025664
244 1 -3.1319 0.929184 -1.0441 0 0 0 -0.0381063 0.0131961 -0.0266417
87 1 -3.40032 1.10467 0.485712 0 0 0 -0.121887 -0.0420368 -0.00980822
18 1 3.94296 -0.898368 -0.985296 -0.0005 0 0 0 -0.12706 0
35 1 3.9241 -0.026208 -0.979296 -0.0005 0 0 0 -0.130757 0
78 1 4.01237 0.495072 -0.32832 -0.0005 0 0 0 -0.245067 0
20 1 4.17264 -0.4068 -0.245664 -0.0005 0 0 0 -0.0118269 0
114 1 4.18291 0.14544 0.469152 -0.0005 0 0 0 0.0449469 0
161 1 3.92275 1.00406 0.341616 -0.0005 0 0 0 -0.191595 0
243 1 4.2444 -0.75576 0.543024 -0.0005 0 0 0 -0.033958 0
14 1 -2.64211 1.74691 -1.02422 0 0 0 -0.0772895 0.0676293 -0.0612614
233 1 -1.9837 2.44526 -0.902304 0 0 0 -0.0742129 0.255101 0.165577
93 1 -3.11957 1.45094 -0.305424 0 0 0 4.27209e-05 9.37576e-05 -8.46119e-07
264 1 -2.568 2.17752 -0.269232 0 0 0 -0.0894957 0.0758255 -0.0186522
130 1 -1.87138 2.77762 -0.11136 0 0 0 -0.12701 0.187268 -0.513818
178 1 -1.23288 2.93827 -0.733728 0 0 0 -0.0177687 0.09944 0.075777
199 1 -2.94888 1.85573 0.4956 0 0 0 -0.146269 0.0128717 -0.0969567
153 1 -2.35253 2.48923 0.516528 0 0 0 -0.480567 0.175237 -0.0486038
282 1 -1.15406 3.16637 0.119664 0 0 0 0.165584 0.405862 -0.285154
86 1 -1.1641 3.15662 0.969984 0 0 0 0.152987 0.43459 0.292843
202 1 0.274656 3.18773 -0.866016 0 0 0 -0.0129926 0.0150301 -0.27778
165 1 -0.45432 3.26837 -0.388464 0 0 0 0.00787225 0.104893 -0.101466
261 1 1.00752 3.25982 -0.368832 0 0 0 0.169018 0.149083 -0.0763021
50 1 -0.42336 3.37968 0.567312 0 0 0 -0.136286 0.191105 0.155794
57 1 0.292512 3.41102 0.0876 0 0 0 0.0328766 0.171713 0.014814
239 1 1.04525 3.35131 0.576768 0 0 0 -0.0470022 0.101694 0.0398776
119 1 0.310176 3.39605 1.06051 0 0 0 0.00108504 0.0524993 0.308923
210 1 3.11573 1.86322 -0.84504 0 0 0 -0.0838064 0.100262 -0.320265
97 1 1.73054 2.93832 -0.72312 0 0 0 -0.0870395 0.388473 -0.338171
260 1 2.45107 2.5008 -0.798576 0 0 0 0.29378 -0.0585863 -0.464402
131 1 2.93774 2.32502 -0.124272 0 0 0 0.446617 0.132811 -0.0585392
158 1 2.45717 2.76485 0.429264 0 0 0 0.230755 0.136734 0.602173
43 1 1.7496 3.11875 0.108624 0 0 0 -0.292032 0.460373 0.169546
148 1 3.11846 2.20766 0.71736 0 0 0 -0.107191 0.292473 0.241429
52 1 1.81387 3.08093 0.992544 0 0 0 0.013523 0.0633555 -0.0237644
205 1 3.62693 1.14806 -0.7536 -0.0005 0 0 0 0.198013 0
237 1 3.51014 1.68211 -0.00048 -0.0005 0 0 0 0.111401 0
143 1 3.62242 1.52914 0.962112 -0.0005 0 0 0 0.0887856 0
63 1 -1.77216 -3.96792 1.22544 0 0 0 0.0241082 -0.0078001 0.0899045
197 1 -1.42454 -3.88219 2.05114 0 0 0 -0.0680328 -0.0370797 -0.113741
228 1 -2.20915 -3.45744 1.8407 0 0 0 0 0 0
61 1 -0.037152 -4.4388 1.548 0 0 0 -0.204606 -0.140433 -0.0477068
187 1 -0.939216 -4.29979 1.41005 0 0 0 0 0 0
95 1 0.933984 -4.38509 1.55458 0 0 0 0.393052 -0.168819 -0.167725
221 1 -0.53712 -4.1293 2.19878 0 0 0 -0.256884 -0.0762507 -0.0252733
238 1 0.44184 -4.18296 2.25134 0 0 0 0.170394 -0.0823115 0.132235
76 1 -0.983328 -3.64205 2.78957 0 0 0 -0.341057 -0.0110881 -0.0302533
74 1 -0.048432 -3.80947 2.86752 0 0 0 0.104732 -0.0358466 0.222152
268 1 0.880416 -3.73594 2.89613 0 0 0 0.0619057 -0.0673165 -0.0152208
108 1 2.58754 -3.75283 1.19218 0 0 0 0.101355 -0.0768025 0.0677333
10 1 1.80456 -4.15526 1.40938 0 0 0 0.0310416 -0.0563454 0.00818453
253 1 1.37712 -4.02288 2.21515 0 0 0 0.318923 0.0808486 0.164753
214 1 2.20915 -3.70757 2.05714 0 0 0 -0.113458 -0.00901244 0.298144
149 1 1.76213 -3.48403 2.81568 0 0 0 0.0558133 -0.181745 -0.129689
68 1 -3.48106 -1.5359 1.67659 0 0 0 -0.36081 -0.285333 0.274582
277 1 -3.35539 -2.22192 1.18248 0 0 0 -0.154171 -0.101745 0.0513414
49 1 -2.86334 -2.89258 1.54762 0 0 0 -0.0599794 0.0513779 0.073244
159 1 -3.07694 -2.20171 2.07418 0 0 0 0.0234303 -0.135088 0.164129
172 1 -1.80235 -3.29059 2.64206 0 0 0 0.0936943 -0.0650501 0.0317845
184 1 -2.50982 -2.79941 2.40206 0 0 0 0.0754159 -0.113178 0.0659888
168 1 -3.17582 -1.36464 2.46346 0 0 0 -0.093674 0.0233358 0.17601
29 1 -2.68507 -2.00146 2.85696 0 0 0 -0.107072 0.0924795 -0.00414596
198 1 -1.30354 -2.97811 3.32981 0 0 0 -0.0308885 -0.0646528 0.0504858
164 1 -2.0497 -2.54798 3.14914 0 0 0 -0.160981 0.0422666 -0.000202329
235 1 -0.476256 -3.27062 3.40051 0 0 0 -0.326376 -0.398847 0.0710227
147 1 2.92757 -3.25018 1.81752 0 0 0 0.0964251 -0.0145597 0.305162
274 1 2.53603 -3.08818 2.63227 0 0 0 -0.0563934 -0.0942705 0.0681624
31 1 3.19646 -2.58312 2.33568 0 0 0 -0.200094 -0.457306 0.437808
212 1 3.37709 -1.82923 2.67965 0 0 0 0.166962 0.045613 0.495769
271 1 2.06294 -2.76845 3.33274 0 0 0 0.0184455 -0.150088 0.023112
246 1 2.7745 -2.32286 3.08405 0 0 0 0.194691 -0.0927468 -0.0501819
169 1 2.95032 -1.44926 3.33758 0 0 0 -0.0610937 0.0135843 0.229811
89 1 3.51216 -2.65416 1.54555 -0.0005 0 0 0 -0.400254 0
250 1 3.91286 -1.92562 1.3956 -0.0005 0 0 0 -0.0950617 0
262 1 3.83011 -1.43146 2.08598 -0.0005 0 0 0 0.450927 0
66 1 -3.67752 -0.14856 1.27723 0.0005 0 0 0 0.377404 0
209 1 -3.48274 0.699648 1.28798 0 0 0 -0.0666143 0.159231 0.00207059
137 1 -3.52622 -0.721152 1.8887 0.0005 0 0 0 0.307363 0
270 1 -3.39787 0.1584 2.03726 0 0 0 -0.190462 -0.140066 0.0518418
134 1 -3.1105 1.00008 2.05507 0 0 0 -0.0439726 0.151996 -0.138408
91 1 -3.15653 -0.485568 2.64562 0 0 0 -0.161331 0.00860935 -0.0205491
219 1 -2.95162 0.397248 2.7409 0 0 0 -0.0183347 0.0593404 0.177564
62 1 -2.718 -1.13069 3.16546 0 0 0 0.12176 -0.0097614 0.298384
110 1 -2.63155 -0.251424 3.29717 0 0 0 -0.0190446 0.137675 0.16665
145 1 -2.35238 0.603024 3.34253 0 0 0 -0.63545 -0.103271 -0.112894
32 1 3.39499 0.783552 2.58187 0 0 0 0.120221 0.0160029 -0.06742
115 1 3.03288 -0.562992 3.39149 0 0 0 -0.0415303 -0.123764 0.216521
276 1 3.0048 0.311136 3.28099 0 0 0 0.0957668 0.21775 0.0725254
266 1 3.98554 0.696048 1.16573 -0.0005 0 0 0 -0.172536 0
135 1 4.1317 -1.07266 1.3416 -0.0005 0 0 0 0.048015 0
140 1 4.1545 -0.185616 1.28477 -0.0005 0 0 0 0.111016 0
125 1 3.86189 0.332832 1.97294 -0.0005 0 0 0 -0.0828577 0
51 1 3.54984 -0.088512 2.72462 -0.0005 0 0 0 0.198713 0
226 1 3.93504 -0.55536 2.06995 -0.0005 0 0 0 0.149549 0
84 1 3.52368 -0.966624 2.78251 -0.0005 0 0 0 -0.114323 0
267 1 -3.10584 1.49126 1.29792 0 0 0 -0.0562317 0.0738049 0.0939976
54 1 -2.56344 2.18506 1.29624 0 0 0 0.102915 0.344336 0.12105
231 1 -1.88515 2.76322 1.17245 0 0 0 -0.317695 0.00625371 0.576423
269 1 -2.62968 1.76549 2.05406 0 0 0 -0.075086 -0.00680839 0.178433
183 1 -1.99195 2.42117 1.9716 0 0 0 -0.0517367 0.139926 -0.0483424
192 1 -1.24963 2.91648 1.80835 0 0 0 -0.0240516 0.0995179 0.0262405
15 1 -2.5787 1.21709 2.73581 0 0 0 -0.147025 -0.187548 0.190587
88 1 -2.00266 1.93594 2.69424 0 0 0 -0.0672577 0.101952 0.0507552
249 1 -1.2971 2.50085 2.57779 0 0 0 -0.0381335 0.0253579 0.12003
150 1 -1.91827 1.33008 3.31162 0 0 0 -0.217268 0.507291 0.00369043
142 1 -1.27075 1.93666 3.25277 0 0 0 0.0239834 -0.0743969 0.232034
256 1 -0.460992 3.25051 1.48982 0 0 0 0.035686 0.048629 0.172222
128 1 0.290352 3.1655 1.9559 0 0 0 0.0716791 0.0221462 0.0582922
254 1 1.07659 3.2209 1.49352 0 0 0 0.0421116 -0.00962393 0.0237921
263 1 -0.516096 2.91907 2.32939 0 0 0 -0.0385264 0.00980599 -0.0214134
196 1 0.2484 2.74282 2.76528 0 0 0 -0.118462 0.0661596 -0.0493066
27 1 1.04875 2.89934 2.34394 0 0 0 -0.0396659 0.0568119 -0.00405864
227 1 -0.535632 2.4097 3.07718 0 0 0 0.0550251 0.118891 -0.0760356
223 1 0.992592 2.3916 3.10526 0 0 0 0.0444348 0.178174 -0.0930608
252 1 2.53656 2.61614 1.29619 0 0 0 0.0440822 0.0929306 -0.0785339
251 1 3.1428 1.9789 1.57397 0 0 0 0.0239692 0.111849 -0.0571516
126 1 1.82976 2.85485 1.84848 0 0 0 0.0255636 0.0490942 0.0314895
154 1 3.0564 1.59883 2.36448 0 0 0 0.117221 -0.145796 0.2646
8 1 1.76534 2.4637 2.64086 0 0 0 -0.0500296 -0.0376107 0.24936
99 1 2.50872 2.31461 2.12054 0 0 0 0.0644036 0.133675 -0.0652357
167 1 2.77886 1.15406 3.09466 0 0 0 0.656141 -0.080639 -0.189004
23 1 1.68307 1.89106 3.33139 0 0 0 -0.206305 0.611435 -0.0114024
106 1 2.38646 1.87181 2.86186 0 0 0 0.223453 0.47786 -0.0766926
25 1 3.60053 1.1951 1.79587 -0.0005 0 0 0 -0.0550626 0
28 1 -2.14522 -1.71883 3.52838 0 0 0 -0.267809 0.134241 -0.093292
11 1 -1.44715 -2.1996 3.76963 0 0 0 -0.0886645 -0.0412839 0.0456636
141 1 -1.46362 -1.3501 4.06181 0 0 0 -0.202671 -0.143679 0.0381779
124 1 0.375216 -3.2857 3.46824 0 0 0 0.399739 -0.555371 -0.228738
17 1 -0.66504 -2.58773 3.8651 0 0 0 -0.498606 0.0945039 0.243534
111 1 0.709248 -2.64293 3.92203 0 0 0 0.380045 0.0581754 0.40441
173 1 -0.722592 -1.77427 4.2193 0 0 0 0.0229577 -0.171473 0.155071
73 1 0.03672 -2.20219 4.1772 0 0 0 0.208852 0.309408 0.489851
186 1 0.855984 -1.83547 4.2719 0 0 0 -0.189411 -0.0603121 0.071117
211 1 0.108288 -1.36651 4.44418 0 0 0 0.321522 0.0743695 0.12544
170 1 1.26187 -3.11774 3.44275 0 0 0 -0.201447 -0.305175 -0.000494531
100 1 1.52141 -2.3232 3.88838 0 0 0 0.0643577 0.0524777 0.138814
204 1 2.27654 -1.91606 3.69754 0 0 0 0.16485 0.249386 0.102406
195 1 1.6501 -1.45387 4.16371 0 0 0 0.175146 0.0794726 -0.0119887
123 1 -2.11205 -0.84984 3.7523 0 0 0 -0.298987 -0.160151 -0.056275
6 1 -1.97611 0.009696 3.81101 0 0 0 -0.327683 -0.219035 0.343463
112 1 -1.36498 -0.475152 4.18954 0 0 0 -0.020056 0.146079 0.160215
281 1 -1.29077 0.424752 4.08638 0 0 0 0.32174 -0.230487 0.502514
185 1 -0.593808 -0.015456 4.39742 0 0 0 0.149429 -0.0968685 0.108635
174 1 -0.528912 0.87672 4.17432 0 0 0 -0.198519 -0.197554 0.244688
121 1 0.939072 0.84888 4.19774 0 0 0 0.0620765 -0.0883768 0.143231
175 1 -0.648912 -0.915408 4.41091 0 0 0 0.226268 0.201917 0.216629
278 1 0.92424 -0.959904 4.44682 0 0 0 -0.0183887 0.0753002 0.0241423
67 1 0.15768 -0.477648 4.52275 0 0 0 0.157046 0.0330901 0.0361138
207 1 0.947472 -0.05616 4.42747 0 0 0 -0.222001 -0.177092 0.106898
160 1 0.19224 0.427008 4.39762 0 0 0 -0.0271664 -0.370694 0.193624
132 1 2.38334 -1.02619 3.87317 0 0 0 -0.123101 -0.0882964 0.13874
206 1 1.70088 -0.553872 4.24848 0 0 0 0.0256027 -0.00421456 -0.00438738
156 1 2.40768 -0.138432 3.85992 0 0 0 -0.109172 -0.130368 0.209379
225 1 1.68485 0.338832 4.14245 0 0 0 0.0614051 0.0419972 0.0407044
37 1 2.34005 0.716352 3.68107 0 0 0 0.180963 -0.259746 0.4376
152 1 -1.22918 1.22386 3.78802 0 0 0 0.104308 0.501022 0.202807
273 1 0.220944 2.136 3.46944 0 0 0 -0.0173464 0.297662 -0.112754
42 1 0.204144 1.33056 4.04333 0 0 0 0.0152679 0.0213641 0.178938
188 1 -0.518448 1.72661 3.71002 0 0 0 -0.116999 0.199413 -0.0133347
82 1 0.93432 1.69776 3.74563 0 0 0 0.161081 0.150528 0.0945707
98 1 1.65499 1.19174 3.82742 0 0 0 -0.243569 -0.0780678 0.497626
